integrator              = steep
nsteps                  = 20000
nstlog                  = 50
nstenergy               = 1000
nstxout                 = 0
nstvout                 = 0
nstxout-compressed      = 5000
compressed-x-grps       = System
constraint_algorithm    = lincs
constraints             = h-bonds
lincs_order             = 12
lincs_iter              = 1
cutoff-scheme           = Verlet
nstlist                 = 20
coulombtype             = PME
pme_order               = 4
fourierspacing          = 0.12
rcoulomb                = 1.0
rvdw                    = 1.0
DispCorr                = EnerPres
pbc                     = xyz
ld_seed                 = 20260911
emtol = 500
