integrator              = md
dt                      = 0.002
nsteps                  = 50000
nstlog                  = 50
nstenergy               = 50
nstxout                 = 0
nstvout                 = 0
nstxout-compressed      = 5000
compressed-x-grps       = System
continuation            = no
constraint_algorithm    = lincs
constraints             = h-bonds
lincs_order             = 12
lincs_iter              = 1
cutoff-scheme           = Verlet
nstlist                 = 20
coulombtype             = PME
pme_order               = 4
fourierspacing          = 0.12
rcoulomb                = 1.0
rvdw                    = 1.0
DispCorr                = EnerPres
pbc                     = xyz
tcoupl                  = V-rescale
tc-grps                 = System
tau_t                   = 0.1
ref_t                   = 310
gen_vel                 = yes
ld_seed                 = 20260911
gen_temp                = 310
gen_seed                = 1
